Title: ** sch_path: /workspaces/gf180-io-verification/test/asig_5p0/asig_5p0.sch
Date: Thu Jan  4 21:12:46  2024
Plotname: Transient Analysis
Flags: real
No. Variables: 2
No. Points: 59
Variables:
	0	time	time
	1	all	time
Values:
 0	0.000000000000000e+00
	0.000000000000000e+00

 1	2.000000000000000e-09
	2.000000000000000e-09

 2	4.000000000000000e-09
	4.000000000000000e-09

 3	8.000000000000000e-09
	8.000000000000000e-09

 4	1.600000000000000e-08
	1.600000000000000e-08

 5	3.200000000000000e-08
	3.200000000000000e-08

 6	6.400000000000000e-08
	6.400000000000000e-08

 7	1.280000000000000e-07
	1.280000000000000e-07

 8	2.560000000000000e-07
	2.560000000000000e-07

 9	5.120000000000000e-07
	5.120000000000000e-07

 10	9.120000000000000e-07
	9.120000000000000e-07

 11	1.312000000000000e-06
	1.312000000000000e-06

 12	1.712000000000000e-06
	1.712000000000000e-06

 13	2.112000000000000e-06
	2.112000000000000e-06

 14	2.512000000000000e-06
	2.512000000000000e-06

 15	2.912000000000000e-06
	2.912000000000000e-06

 16	3.312000000000000e-06
	3.312000000000000e-06

 17	3.712000000000000e-06
	3.712000000000000e-06

 18	4.112000000000000e-06
	4.112000000000000e-06

 19	4.512000000000000e-06
	4.512000000000000e-06

 20	4.912000000000000e-06
	4.912000000000000e-06

 21	5.311999999999999e-06
	5.311999999999999e-06

 22	5.711999999999999e-06
	5.711999999999999e-06

 23	6.111999999999998e-06
	6.111999999999998e-06

 24	6.511999999999998e-06
	6.511999999999998e-06

 25	6.911999999999998e-06
	6.911999999999998e-06

 26	7.311999999999997e-06
	7.311999999999997e-06

 27	7.711999999999997e-06
	7.711999999999997e-06

 28	8.111999999999996e-06
	8.111999999999996e-06

 29	8.511999999999996e-06
	8.511999999999996e-06

 30	8.911999999999995e-06
	8.911999999999995e-06

 31	9.311999999999995e-06
	9.311999999999995e-06

 32	9.711999999999994e-06
	9.711999999999994e-06

 33	1.011199999999999e-05
	1.011199999999999e-05

 34	1.051199999999999e-05
	1.051199999999999e-05

 35	1.091199999999999e-05
	1.091199999999999e-05

 36	1.131199999999999e-05
	1.131199999999999e-05

 37	1.171199999999999e-05
	1.171199999999999e-05

 38	1.211199999999999e-05
	1.211199999999999e-05

 39	1.251199999999999e-05
	1.251199999999999e-05

 40	1.291199999999999e-05
	1.291199999999999e-05

 41	1.331199999999999e-05
	1.331199999999999e-05

 42	1.371199999999999e-05
	1.371199999999999e-05

 43	1.411199999999999e-05
	1.411199999999999e-05

 44	1.451199999999999e-05
	1.451199999999999e-05

 45	1.491199999999999e-05
	1.491199999999999e-05

 46	1.531199999999999e-05
	1.531199999999999e-05

 47	1.571199999999999e-05
	1.571199999999999e-05

 48	1.611199999999999e-05
	1.611199999999999e-05

 49	1.651199999999999e-05
	1.651199999999999e-05

 50	1.691199999999999e-05
	1.691199999999999e-05

 51	1.731199999999999e-05
	1.731199999999999e-05

 52	1.771199999999999e-05
	1.771199999999999e-05

 53	1.811199999999999e-05
	1.811199999999999e-05

 54	1.851199999999998e-05
	1.851199999999998e-05

 55	1.891199999999998e-05
	1.891199999999998e-05

 56	1.931199999999998e-05
	1.931199999999998e-05

 57	1.971199999999998e-05
	1.971199999999998e-05

 58	2.000000000000000e-05
	2.000000000000000e-05

